n -t * -s 0  -x 943.36844228042003 -y 193.41024391888001 -Z 0 -z 50  -v circle -c green
n -t * -s 1  -x 645.96971616742496 -y 813.02019894163197 -Z 0 -z 50  -v circle -c green
n -t * -s 2  -x 330.48433325332002 -y 150.18937044458701 -Z 0 -z 50  -v circle -c green
n -t * -s 3  -x 232.74919539986499 -y 815.72729196551302 -Z 0 -z 50  -v circle -c green
n -t * -s 4  -x 328.596788003732 -y 926.21680247654501 -Z 0 -z 50  -v circle -c green
n -t * -s 5  -x 925.80004493745798 -y 921.35608513696002 -Z 0 -z 50  -v circle -c green
n -t * -s 6  -x 231.723714249887 -y 480.46560339381301 -Z 0 -z 50  -v circle -c green
n -t * -s 7  -x 885.39675473469902 -y 863.25761152683003 -Z 0 -z 50  -v circle -c green
n -t * -s 8  -x 770.67769723167601 -y 780.058056438172 -Z 0 -z 50  -v circle -c green
n -t * -s 9  -x 435.75524836143501 -y 738.45959718094798 -Z 0 -z 50  -v circle -c green
n -t * -s 10  -x 290.45047529857902 -y 601.13860086211798 -Z 0 -z 50  -v circle -c green
n -t * -s 11  -x 336.46522289995397 -y 971.00157796448798 -Z 0 -z 50  -v circle -c green
n -t * -s 12  -x 623.52171053776704 -y 529.38956137252103 -Z 0 -z 50  -v circle -c green
n -t * -s 13  -x 450.35845758361199 -y 174.597007294561 -Z 0 -z 50  -v circle -c green
n -t * -s 14  -x 451.90175455095101 -y 112.78913873248 -Z 0 -z 50  -v circle -c green
n -t * -s 15  -x 647.05477681649302 -y 49.634528832514 -Z 0 -z 50  -v circle -c green
n -t * -s 16  -x 207.52613208443 -y 891.70212707976998 -Z 0 -z 50  -v circle -c green
n -t * -s 17  -x 837.65062072440003 -y 393.98325809711798 -Z 0 -z 50  -v circle -c green
n -t * -s 18  -x 676.61918774243497 -y 938.68898732228399 -Z 0 -z 50  -v circle -c green
n -t * -s 19  -x 545.81075836156504 -y 441.41626702220202 -Z 0 -z 50  -v circle -c green
n -t * -s 20  -x 883.200233701191 -y 946.32859939665502 -Z 0 -z 50  -v circle -c green
n -t * -s 21  -x 944.77089906003198 -y 764.50134007159704 -Z 0 -z 50  -v circle -c green
n -t * -s 22  -x 974.02326150965598 -y 408.95705687003198 -Z 0 -z 50  -v circle -c green
n -t * -s 23  -x 341.255177418968 -y 475.76718331400201 -Z 0 -z 50  -v circle -c green
n -t * -s 24  -x 219.050380491754 -y 579.74511921127703 -Z 0 -z 50  -v circle -c green
V -t * -v 1.0a5 -a 0
W -t * -x 1000 -y 1000
A -t * -n 1 -p 0 -o 0x7fffffff -c 30 -a 1
A -t * -h 1 -m 1073741823 -s 0
n -t 0 -s 0 -S COLOR -c Gray -o Gray -i Gray -I Gray
n -t 0 -s 1 -S COLOR -c Gray -o BlueViolet -i Gray -I BlueViolet
n -t 0 -s 2 -S COLOR -c Gray -o Gray -i Gray -I Gray
n -t 0 -s 3 -S COLOR -c Gray -o BlueViolet -i Gray -I BlueViolet
n -t 0 -s 4 -S COLOR -c Gray -o Gray -i Gray -I Gray
n -t 0 -s 5 -S COLOR -c Gray -o Gray -i Gray -I Gray
n -t 0 -s 6 -S COLOR -c Gray -o BlueViolet -i Gray -I BlueViolet
n -t 0 -s 7 -S COLOR -c Gray -o Gray -i Gray -I Gray
n -t 0 -s 8 -S COLOR -c Gray -o BlueViolet -i Gray -I BlueViolet
n -t 0 -s 9 -S COLOR -c Gray -o BlueViolet -i Gray -I BlueViolet
n -t 0 -s 10 -S COLOR -c Gray -o Gray -i Gray -I Gray
n -t 0 -s 11 -S COLOR -c Gray -o Gray -i Gray -I Gray
n -t 0 -s 12 -S COLOR -c Gray -o BlueViolet -i Gray -I BlueViolet
n -t 0 -s 13 -S COLOR -c Gray -o Gray -i Gray -I Gray
n -t 0 -s 14 -S COLOR -c Gray -o Gray -i Gray -I Gray
n -t 0 -s 15 -S COLOR -c Gray -o Gray -i Gray -I Gray
n -t 0 -s 16 -S COLOR -c Gray -o Gray -i Gray -I Gray
n -t 0 -s 17 -S COLOR -c Gray -o BlueViolet -i Gray -I BlueViolet
n -t 0 -s 18 -S COLOR -c Gray -o BlueViolet -i Gray -I BlueViolet
n -t 0 -s 19 -S COLOR -c Gray -o BlueViolet -i Gray -I BlueViolet
n -t 0 -s 20 -S COLOR -c Gray -o Gray -i Gray -I Gray
n -t 0 -s 21 -S COLOR -c Gray -o Gray -i Gray -I Gray
n -t 0 -s 22 -S COLOR -c Gray -o BlueViolet -i Gray -I BlueViolet
n -t 0 -s 23 -S COLOR -c Gray -o BlueViolet -i Gray -I BlueViolet
n -t 0 -s 24 -S COLOR -c Gray -o Gray -i Gray -I Gray
v -t 0 -e sim_annotation 0 1 All the nodes are in sleep state
n -t 1.000000 -s 0 -x 943.368442 -y 193.410244 -U -0.093637 -V 0.403887 -T 1785.086935
n -t 1.000000 -s 1 -x 645.969716 -y 813.020199 -U -1.629377 -V -6.479894 -T 117.975956
n -t 1.000000 -s 2 -x 330.484333 -y 150.189370 -U 6.266667 -V -1.391917 -T 33.911144
n -t 1.000000 -s 3 -x 232.749195 -y 815.727292 -U 6.152743 -V -2.951563 -T 116.736812
n -t 1.000000 -s 4 -x 328.596788 -y 926.216802 -U 0.290324 -V -0.737563 -T 934.221358
n -t 1.000000 -s 5 -x 925.800045 -y 921.356085 -U -1.253512 -V -0.629405 -T 625.238740
n -t 1.000000 -s 6 -x 231.723714 -y 480.465603 -U 5.472596 -V 2.305840 -T 99.644890
n -t 1.000000 -s 7 -x 885.396755 -y 863.257612 -U -3.054414 -V -2.248478 -T 151.129986
n -t 1.000000 -s 8 -x 770.677697 -y 780.058056 -U -1.192831 -V -1.072998 -T 277.101026
n -t 1.000000 -s 9 -x 435.755248 -y 738.459597 -U -0.096999 -V -0.288194 -T 2243.593834
n -t 1.000000 -s 10 -x 290.450475 -y 601.138601 -U -2.499760 -V -4.382631 -T 77.745087
n -t 1.000000 -s 11 -x 336.465223 -y 971.001578 -U -2.062404 -V -1.836595 -T 138.339949
n -t 1.000000 -s 12 -x 623.521711 -y 529.389561 -U 0.800788 -V -1.690952 -T 58.170041
n -t 1.000000 -s 13 -x 450.358458 -y 174.597007 -U -2.169588 -V 3.921819 -T 100.224330
n -t 1.000000 -s 14 -x 451.901755 -y 112.789139 -U -0.368934 -V 0.875150 -T 855.108644
n -t 1.000000 -s 15 -x 647.054777 -y 49.634529 -U -1.285250 -V 1.950832 -T 256.259039
n -t 1.000000 -s 16 -x 207.526132 -y 891.702127 -U -1.113155 -V -6.421593 -T 93.571027
n -t 1.000000 -s 17 -x 837.650621 -y 393.983258 -U -4.395986 -V -0.851494 -T 149.886665
n -t 1.000000 -s 18 -x 676.619188 -y 938.688987 -U 1.128933 -V -3.540523 -T 234.751402
n -t 1.000000 -s 19 -x 545.810758 -y 441.416267 -U -1.939077 -V -4.640229 -T 32.468506
n -t 1.000000 -s 20 -x 883.200234 -y 946.328599 -U -0.540426 -V -5.903478 -T 69.956813
n -t 1.000000 -s 21 -x 944.770899 -y 764.501340 -U -3.389465 -V 0.204216 -T 125.722046
n -t 1.000000 -s 22 -x 974.023262 -y 408.957057 -U -0.668616 -V 2.253775 -T 166.819690
n -t 1.000000 -s 23 -x 341.255177 -y 475.767183 -U 2.207627 -V 5.953719 -T 34.314865
n -t 1.000000 -s 24 -x 219.050380 -y 579.745119 -U 1.856239 -V -0.207720 -T 393.999412
m -t 1 -s 17 -n m1 -c orange -h hexagon
n -t 1 -s 17 -S DLABEL -l "CH" -L ""
m -t 1 -s 7 -n m1 -c orange -h hexagon
n -t 1 -s 7 -S DLABEL -l "CH" -L ""
m -t 1 -s 9 -n m1 -c orange -h hexagon
n -t 1 -s 9 -S DLABEL -l "CH" -L ""
m -t 1 -s 13 -n m1 -c orange -h hexagon
n -t 1 -s 13 -S DLABEL -l "CH" -L ""
v -t 1 -e sim_annotation 1 2 Nodes are clustered using FCM
+ -t 1.000000000 -s 3 -d -1 -p cbr -e 512 -c 2 -a 0 -i 0 -k AGT 
- -t 1.000000000 -s 3 -d -1 -p cbr -e 512 -c 2 -a 0 -i 0 -k AGT
h -t 1.000000000 -s 3 -d -1 -p cbr -e 512 -c 2 -a 0 -i 0 -k AGT
v -t 1 -e sim_annotation 1 3 EBFO selects exact nodes for transmission
v -t 1 -e sim_annotation 1 4 Active nodes are authenticated using ECDH
n -t 1 -s 18 -S COLOR -c BlueViolet -o Gray -i BlueViolet -I Gray
n -t 1 -s 3 -S COLOR -c BlueViolet -o Gray -i BlueViolet -I Gray
n -t 1 -s 9 -S COLOR -c BlueViolet -o Gray -i BlueViolet -I Gray
n -t 1 -s 1 -S COLOR -c BlueViolet -o Gray -i BlueViolet -I Gray
m -t 1 -s 3 -n m1 -c OrangeRed -h circle
n -t 1 -s 3 -S DLABEL -l "SRC" -L ""
m -t 1 -s 18 -n m1 -c OrangeRed -h circle
n -t 1 -s 18 -S DLABEL -l "DST" -L ""
+ -t 1.000000000 -s 3 -d -1 -p AODV -e 48 -c 2 -a 0 -i 0 -k RTR 
- -t 1.000000000 -s 3 -d -1 -p AODV -e 48 -c 2 -a 0 -i 0 -k RTR
h -t 1.000000000 -s 3 -d -1 -p AODV -e 48 -c 2 -a 0 -i 0 -k RTR
r -t 1.001080267 -s 16 -d -1 -p AODV -e 48 -c 2 -a 0 -i 0 -k RTR
r -t 1.001080488 -s 4 -d -1 -p AODV -e 48 -c 2 -a 0 -i 0 -k RTR
r -t 1.001080622 -s 11 -d -1 -p AODV -e 48 -c 2 -a 0 -i 0 -k RTR
r -t 1.001080724 -s 9 -d -1 -p AODV -e 48 -c 2 -a 0 -i 0 -k RTR
r -t 1.001080741 -s 10 -d -1 -p AODV -e 48 -c 2 -a 0 -i 0 -k RTR
r -t 1.001080788 -s 24 -d -1 -p AODV -e 48 -c 2 -a 0 -i 0 -k RTR
+ -t 1.001222313 -s 16 -d -1 -p AODV -e 48 -c 2 -a 0 -i 0 -k RTR 
- -t 1.001222313 -s 16 -d -1 -p AODV -e 48 -c 2 -a 0 -i 0 -k RTR
h -t 1.001222313 -s 16 -d -1 -p AODV -e 48 -c 2 -a 0 -i 0 -k RTR
+ -t 1.001961714 -s 4 -d -1 -p AODV -e 48 -c 2 -a 0 -i 0 -k RTR 
- -t 1.001961714 -s 4 -d -1 -p AODV -e 48 -c 2 -a 0 -i 0 -k RTR
h -t 1.001961714 -s 4 -d -1 -p AODV -e 48 -c 2 -a 0 -i 0 -k RTR
r -t 1.002082580 -s 3 -d -1 -p AODV -e 48 -c 2 -a 0 -i 0 -k RTR
r -t 1.002082733 -s 4 -d -1 -p AODV -e 48 -c 2 -a 0 -i 0 -k RTR
r -t 1.002082818 -s 11 -d -1 -p AODV -e 48 -c 2 -a 0 -i 0 -k RTR
r -t 1.003012885 -s 11 -d -1 -p AODV -e 48 -c 2 -a 0 -i 0 -k RTR
r -t 1.003013153 -s 16 -d -1 -p AODV -e 48 -c 2 -a 0 -i 0 -k RTR
r -t 1.003013221 -s 3 -d -1 -p AODV -e 48 -c 2 -a 0 -i 0 -k RTR
r -t 1.003013454 -s 9 -d -1 -p AODV -e 48 -c 2 -a 0 -i 0 -k RTR
+ -t 1.004210358 -s 10 -d -1 -p AODV -e 48 -c 2 -a 0 -i 0 -k RTR 
- -t 1.004210358 -s 10 -d -1 -p AODV -e 48 -c 2 -a 0 -i 0 -k RTR
h -t 1.004210358 -s 10 -d -1 -p AODV -e 48 -c 2 -a 0 -i 0 -k RTR
r -t 1.004870607 -s 24 -d -1 -p AODV -e 48 -c 2 -a 0 -i 0 -k RTR
r -t 1.004870806 -s 6 -d -1 -p AODV -e 48 -c 2 -a 0 -i 0 -k RTR
r -t 1.004870809 -s 23 -d -1 -p AODV -e 48 -c 2 -a 0 -i 0 -k RTR
r -t 1.004871025 -s 9 -d -1 -p AODV -e 48 -c 2 -a 0 -i 0 -k RTR
r -t 1.004871099 -s 3 -d -1 -p AODV -e 48 -c 2 -a 0 -i 0 -k RTR
+ -t 1.005492356 -s 11 -d -1 -p AODV -e 48 -c 2 -a 0 -i 0 -k RTR 
- -t 1.005492356 -s 11 -d -1 -p AODV -e 48 -c 2 -a 0 -i 0 -k RTR
h -t 1.005492356 -s 11 -d -1 -p AODV -e 48 -c 2 -a 0 -i 0 -k RTR
+ -t 1.006008892 -s 23 -d -1 -p AODV -e 48 -c 2 -a 0 -i 0 -k RTR 
- -t 1.006008892 -s 23 -d -1 -p AODV -e 48 -c 2 -a 0 -i 0 -k RTR
h -t 1.006008892 -s 23 -d -1 -p AODV -e 48 -c 2 -a 0 -i 0 -k RTR
r -t 1.006352508 -s 4 -d -1 -p AODV -e 48 -c 2 -a 0 -i 0 -k RTR
r -t 1.006352861 -s 16 -d -1 -p AODV -e 48 -c 2 -a 0 -i 0 -k RTR
r -t 1.006352979 -s 3 -d -1 -p AODV -e 48 -c 2 -a 0 -i 0 -k RTR
r -t 1.007448372 -s 6 -d -1 -p AODV -e 48 -c 2 -a 0 -i 0 -k RTR
r -t 1.007448458 -s 10 -d -1 -p AODV -e 48 -c 2 -a 0 -i 0 -k RTR
r -t 1.007448542 -s 24 -d -1 -p AODV -e 48 -c 2 -a 0 -i 0 -k RTR
r -t 1.007448698 -s 19 -d -1 -p AODV -e 48 -c 2 -a 0 -i 0 -k RTR
+ -t 1.009072279 -s 9 -d -1 -p AODV -e 48 -c 2 -a 0 -i 0 -k RTR 
- -t 1.009072279 -s 9 -d -1 -p AODV -e 48 -c 2 -a 0 -i 0 -k RTR
h -t 1.009072279 -s 9 -d -1 -p AODV -e 48 -c 2 -a 0 -i 0 -k RTR
+ -t 1.009245548 -s 24 -d -1 -p AODV -e 48 -c 2 -a 0 -i 0 -k RTR 
- -t 1.009245548 -s 24 -d -1 -p AODV -e 48 -c 2 -a 0 -i 0 -k RTR
h -t 1.009245548 -s 24 -d -1 -p AODV -e 48 -c 2 -a 0 -i 0 -k RTR
r -t 1.009892945 -s 10 -d -1 -p AODV -e 48 -c 2 -a 0 -i 0 -k RTR
r -t 1.009892999 -s 4 -d -1 -p AODV -e 48 -c 2 -a 0 -i 0 -k RTR
r -t 1.009893002 -s 3 -d -1 -p AODV -e 48 -c 2 -a 0 -i 0 -k RTR
r -t 1.009893022 -s 1 -d -1 -p AODV -e 48 -c 2 -a 0 -i 0 -k RTR
r -t 1.011027422 -s 10 -d -1 -p AODV -e 48 -c 2 -a 0 -i 0 -k RTR
r -t 1.011027507 -s 6 -d -1 -p AODV -e 48 -c 2 -a 0 -i 0 -k RTR
r -t 1.011027709 -s 23 -d -1 -p AODV -e 48 -c 2 -a 0 -i 0 -k RTR
r -t 1.011027962 -s 3 -d -1 -p AODV -e 48 -c 2 -a 0 -i 0 -k RTR
+ -t 1.011271482 -s 6 -d -1 -p AODV -e 48 -c 2 -a 0 -i 0 -k RTR 
- -t 1.011271482 -s 6 -d -1 -p AODV -e 48 -c 2 -a 0 -i 0 -k RTR
h -t 1.011271482 -s 6 -d -1 -p AODV -e 48 -c 2 -a 0 -i 0 -k RTR
r -t 1.012071816 -s 24 -d -1 -p AODV -e 48 -c 2 -a 0 -i 0 -k RTR
r -t 1.012071848 -s 23 -d -1 -p AODV -e 48 -c 2 -a 0 -i 0 -k RTR
r -t 1.012071929 -s 10 -d -1 -p AODV -e 48 -c 2 -a 0 -i 0 -k RTR
+ -t 1.015079510 -s 1 -d -1 -p AODV -e 48 -c 2 -a 0 -i 0 -k RTR 
- -t 1.015079510 -s 1 -d -1 -p AODV -e 48 -c 2 -a 0 -i 0 -k RTR
h -t 1.015079510 -s 1 -d -1 -p AODV -e 48 -c 2 -a 0 -i 0 -k RTR
+ -t 1.015518984 -s 19 -d -1 -p AODV -e 48 -c 2 -a 0 -i 0 -k RTR 
- -t 1.015518984 -s 19 -d -1 -p AODV -e 48 -c 2 -a 0 -i 0 -k RTR
h -t 1.015518984 -s 19 -d -1 -p AODV -e 48 -c 2 -a 0 -i 0 -k RTR
r -t 1.016099940 -s 8 -d -1 -p AODV -e 48 -c 2 -a 0 -i 0 -k RTR
r -t 1.016099941 -s 18 -d -1 -p AODV -e 48 -c 2 -a 0 -i 0 -k RTR
+ -t 1.016099941 -s 18 -d 1 -p AODV -e 44 -c 2 -a 0 -i 0 -k RTR 
- -t 1.016099941 -s 18 -d 1 -p AODV -e 44 -c 2 -a 0 -i 0 -k RTR
h -t 1.016099941 -s 18 -d 1 -p AODV -e 44 -c 2 -a 0 -i 0 -k RTR
r -t 1.016100253 -s 9 -d -1 -p AODV -e 48 -c 2 -a 0 -i 0 -k RTR
r -t 1.016100325 -s 7 -d -1 -p AODV -e 48 -c 2 -a 0 -i 0 -k RTR
+ -t 1.016384000 -s 3 -d -1 -p cbr -e 512 -c 2 -a 0 -i 1 -k AGT 
- -t 1.016384000 -s 3 -d -1 -p cbr -e 512 -c 2 -a 0 -i 1 -k AGT
h -t 1.016384000 -s 3 -d -1 -p cbr -e 512 -c 2 -a 0 -i 1 -k AGT
+ -t 1.017970054 -s 1 -d 9 -p AODV -e 44 -c 2 -a 0 -i 0 -k RTR 
- -t 1.017970054 -s 1 -d 9 -p AODV -e 44 -c 2 -a 0 -i 0 -k RTR
h -t 1.017970054 -s 1 -d 9 -p AODV -e 44 -c 2 -a 0 -i 0 -k RTR
+ -t 1.020529102 -s 9 -d 3 -p AODV -e 44 -c 2 -a 0 -i 0 -k RTR 
- -t 1.020529102 -s 9 -d 3 -p AODV -e 44 -c 2 -a 0 -i 0 -k RTR
h -t 1.020529102 -s 9 -d 3 -p AODV -e 44 -c 2 -a 0 -i 0 -k RTR
+ -t 1.022873815 -s 7 -d -1 -p AODV -e 48 -c 2 -a 0 -i 0 -k RTR 
- -t 1.022873815 -s 7 -d -1 -p AODV -e 48 -c 2 -a 0 -i 0 -k RTR
h -t 1.022873815 -s 7 -d -1 -p AODV -e 48 -c 2 -a 0 -i 0 -k RTR
+ -t 1.023548090 -s 3 -d 9 -p cbr -e 532 -c 2 -a 0 -i 0 -k RTR 
- -t 1.023548090 -s 3 -d 9 -p cbr -e 532 -c 2 -a 0 -i 0 -k RTR
h -t 1.023548090 -s 3 -d 9 -p cbr -e 532 -c 2 -a 0 -i 0 -k RTR
r -t 1.024543158 -s 5 -d -1 -p AODV -e 48 -c 2 -a 0 -i 0 -k RTR
r -t 1.024543199 -s 20 -d -1 -p AODV -e 48 -c 2 -a 0 -i 0 -k RTR
r -t 1.024543306 -s 21 -d -1 -p AODV -e 48 -c 2 -a 0 -i 0 -k RTR
r -t 1.024543394 -s 8 -d -1 -p AODV -e 48 -c 2 -a 0 -i 0 -k RTR
r -t 1.024543662 -s 18 -d -1 -p AODV -e 48 -c 2 -a 0 -i 0 -k RTR
+ -t 1.024611005 -s 8 -d -1 -p AODV -e 48 -c 2 -a 0 -i 0 -k RTR 
- -t 1.024611005 -s 8 -d -1 -p AODV -e 48 -c 2 -a 0 -i 0 -k RTR
h -t 1.024611005 -s 8 -d -1 -p AODV -e 48 -c 2 -a 0 -i 0 -k RTR
r -t 1.025715745 -s 12 -d -1 -p AODV -e 48 -c 2 -a 0 -i 0 -k RTR
r -t 1.025716044 -s 23 -d -1 -p AODV -e 48 -c 2 -a 0 -i 0 -k RTR
r -t 1.026831138 -s 1 -d -1 -p AODV -e 48 -c 2 -a 0 -i 0 -k RTR
r -t 1.026831180 -s 7 -d -1 -p AODV -e 48 -c 2 -a 0 -i 0 -k RTR
r -t 1.026831291 -s 21 -d -1 -p AODV -e 48 -c 2 -a 0 -i 0 -k RTR
r -t 1.026831323 -s 18 -d -1 -p AODV -e 48 -c 2 -a 0 -i 0 -k RTR
r -t 1.026831377 -s 20 -d -1 -p AODV -e 48 -c 2 -a 0 -i 0 -k RTR
r -t 1.026831408 -s 5 -d -1 -p AODV -e 48 -c 2 -a 0 -i 0 -k RTR
+ -t 1.027161440 -s 20 -d -1 -p AODV -e 48 -c 2 -a 0 -i 0 -k RTR 
- -t 1.027161440 -s 20 -d -1 -p AODV -e 48 -c 2 -a 0 -i 0 -k RTR
h -t 1.027161440 -s 20 -d -1 -p AODV -e 48 -c 2 -a 0 -i 0 -k RTR
+ -t 1.027577887 -s 12 -d -1 -p AODV -e 48 -c 2 -a 0 -i 0 -k RTR 
- -t 1.027577887 -s 12 -d -1 -p AODV -e 48 -c 2 -a 0 -i 0 -k RTR
h -t 1.027577887 -s 12 -d -1 -p AODV -e 48 -c 2 -a 0 -i 0 -k RTR
r -t 1.028081604 -s 5 -d -1 -p AODV -e 48 -c 2 -a 0 -i 0 -k RTR
r -t 1.028081717 -s 7 -d -1 -p AODV -e 48 -c 2 -a 0 -i 0 -k RTR
r -t 1.028082079 -s 21 -d -1 -p AODV -e 48 -c 2 -a 0 -i 0 -k RTR
r -t 1.028082109 -s 8 -d -1 -p AODV -e 48 -c 2 -a 0 -i 0 -k RTR
r -t 1.028082129 -s 18 -d -1 -p AODV -e 48 -c 2 -a 0 -i 0 -k RTR
r -t 1.029646147 -s 19 -d -1 -p AODV -e 48 -c 2 -a 0 -i 0 -k RTR
+ -t 1.030091703 -s 21 -d -1 -p AODV -e 48 -c 2 -a 0 -i 0 -k RTR 
- -t 1.030091703 -s 21 -d -1 -p AODV -e 48 -c 2 -a 0 -i 0 -k RTR
h -t 1.030091703 -s 21 -d -1 -p AODV -e 48 -c 2 -a 0 -i 0 -k RTR
r -t 1.030832087 -s 7 -d -1 -p AODV -e 48 -c 2 -a 0 -i 0 -k RTR
r -t 1.030832229 -s 5 -d -1 -p AODV -e 48 -c 2 -a 0 -i 0 -k RTR
r -t 1.030832285 -s 8 -d -1 -p AODV -e 48 -c 2 -a 0 -i 0 -k RTR
r -t 1.030832342 -s 20 -d -1 -p AODV -e 48 -c 2 -a 0 -i 0 -k RTR
+ -t 1.031745729 -s 9 -d 1 -p cbr -e 532 -c 2 -a 0 -i 0 -k RTR 
- -t 1.031745729 -s 9 -d 1 -p cbr -e 532 -c 2 -a 0 -i 0 -k RTR
h -t 1.031745729 -s 9 -d 1 -p cbr -e 532 -c 2 -a 0 -i 0 -k RTR
+ -t 1.032698109 -s 1 -d 18 -p cbr -e 532 -c 2 -a 0 -i 0 -k RTR 
- -t 1.032698109 -s 1 -d 18 -p cbr -e 532 -c 2 -a 0 -i 0 -k RTR
h -t 1.032698109 -s 1 -d 18 -p cbr -e 532 -c 2 -a 0 -i 0 -k RTR
+ -t 1.032768000 -s 3 -d -1 -p cbr -e 512 -c 2 -a 0 -i 2 -k AGT 
- -t 1.032768000 -s 3 -d -1 -p cbr -e 512 -c 2 -a 0 -i 2 -k AGT
h -t 1.032768000 -s 3 -d -1 -p cbr -e 512 -c 2 -a 0 -i 2 -k AGT
+ -t 1.032768000 -s 3 -d 9 -p cbr -e 532 -c 2 -a 0 -i 2 -k RTR 
- -t 1.032768000 -s 3 -d 9 -p cbr -e 532 -c 2 -a 0 -i 2 -k RTR
h -t 1.032768000 -s 3 -d 9 -p cbr -e 532 -c 2 -a 0 -i 2 -k RTR
+ -t 1.033309715 -s 5 -d -1 -p AODV -e 48 -c 2 -a 0 -i 0 -k RTR 
- -t 1.033309715 -s 5 -d -1 -p AODV -e 48 -c 2 -a 0 -i 0 -k RTR
h -t 1.033309715 -s 5 -d -1 -p AODV -e 48 -c 2 -a 0 -i 0 -k RTR
+ -t 1.033548090 -s 3 -d 9 -p cbr -e 532 -c 2 -a 0 -i 1 -k RTR 
- -t 1.033548090 -s 3 -d 9 -p cbr -e 532 -c 2 -a 0 -i 1 -k RTR
h -t 1.033548090 -s 3 -d 9 -p cbr -e 532 -c 2 -a 0 -i 1 -k RTR
r -t 1.033730177 -s 18 -d 18 -p cbr -e 532 -c 2 -a 0 -i 0 -k AGT
r -t 1.035023173 -s 20 -d -1 -p AODV -e 48 -c 2 -a 0 -i 0 -k RTR
r -t 1.035023245 -s 7 -d -1 -p AODV -e 48 -c 2 -a 0 -i 0 -k RTR
r -t 1.035023536 -s 21 -d -1 -p AODV -e 48 -c 2 -a 0 -i 0 -k RTR
r -t 1.035023709 -s 8 -d -1 -p AODV -e 48 -c 2 -a 0 -i 0 -k RTR
+ -t 1.036723707 -s 9 -d 1 -p cbr -e 532 -c 2 -a 0 -i 2 -k RTR 
- -t 1.036723707 -s 9 -d 1 -p cbr -e 532 -c 2 -a 0 -i 2 -k RTR
h -t 1.036723707 -s 9 -d 1 -p cbr -e 532 -c 2 -a 0 -i 2 -k RTR
+ -t 1.037696087 -s 1 -d 18 -p cbr -e 532 -c 2 -a 0 -i 2 -k RTR 
- -t 1.037696087 -s 1 -d 18 -p cbr -e 532 -c 2 -a 0 -i 2 -k RTR
h -t 1.037696087 -s 1 -d 18 -p cbr -e 532 -c 2 -a 0 -i 2 -k RTR
r -t 1.039208155 -s 18 -d 18 -p cbr -e 532 -c 2 -a 0 -i 2 -k AGT
+ -t 1.040566049 -s 9 -d 1 -p cbr -e 532 -c 2 -a 0 -i 1 -k RTR 
- -t 1.040566049 -s 9 -d 1 -p cbr -e 532 -c 2 -a 0 -i 1 -k RTR
h -t 1.040566049 -s 9 -d 1 -p cbr -e 532 -c 2 -a 0 -i 1 -k RTR
+ -t 1.042058428 -s 1 -d 18 -p cbr -e 532 -c 2 -a 0 -i 1 -k RTR 
- -t 1.042058428 -s 1 -d 18 -p cbr -e 532 -c 2 -a 0 -i 1 -k RTR
h -t 1.042058428 -s 1 -d 18 -p cbr -e 532 -c 2 -a 0 -i 1 -k RTR
r -t 1.043570496 -s 18 -d 18 -p cbr -e 532 -c 2 -a 0 -i 1 -k AGT
+ -t 1.049152000 -s 3 -d -1 -p cbr -e 512 -c 2 -a 0 -i 3 -k AGT 
- -t 1.049152000 -s 3 -d -1 -p cbr -e 512 -c 2 -a 0 -i 3 -k AGT
h -t 1.049152000 -s 3 -d -1 -p cbr -e 512 -c 2 -a 0 -i 3 -k AGT
+ -t 1.049152000 -s 3 -d 9 -p cbr -e 532 -c 2 -a 0 -i 3 -k RTR 
- -t 1.049152000 -s 3 -d 9 -p cbr -e 532 -c 2 -a 0 -i 3 -k RTR
h -t 1.049152000 -s 3 -d 9 -p cbr -e 532 -c 2 -a 0 -i 3 -k RTR
+ -t 1.050156359 -s 9 -d 1 -p cbr -e 532 -c 2 -a 0 -i 3 -k RTR 
- -t 1.050156359 -s 9 -d 1 -p cbr -e 532 -c 2 -a 0 -i 3 -k RTR
h -t 1.050156359 -s 9 -d 1 -p cbr -e 532 -c 2 -a 0 -i 3 -k RTR
+ -t 1.051368739 -s 1 -d 18 -p cbr -e 532 -c 2 -a 0 -i 3 -k RTR 
- -t 1.051368739 -s 1 -d 18 -p cbr -e 532 -c 2 -a 0 -i 3 -k RTR
h -t 1.051368739 -s 1 -d 18 -p cbr -e 532 -c 2 -a 0 -i 3 -k RTR
r -t 1.052620807 -s 18 -d 18 -p cbr -e 532 -c 2 -a 0 -i 3 -k AGT
+ -t 1.065536000 -s 3 -d -1 -p cbr -e 512 -c 2 -a 0 -i 4 -k AGT 
- -t 1.065536000 -s 3 -d -1 -p cbr -e 512 -c 2 -a 0 -i 4 -k AGT
h -t 1.065536000 -s 3 -d -1 -p cbr -e 512 -c 2 -a 0 -i 4 -k AGT
+ -t 1.065536000 -s 3 -d 9 -p cbr -e 532 -c 2 -a 0 -i 4 -k RTR 
- -t 1.065536000 -s 3 -d 9 -p cbr -e 532 -c 2 -a 0 -i 4 -k RTR
h -t 1.065536000 -s 3 -d 9 -p cbr -e 532 -c 2 -a 0 -i 4 -k RTR
+ -t 1.066460359 -s 9 -d 1 -p cbr -e 532 -c 2 -a 0 -i 4 -k RTR 
- -t 1.066460359 -s 9 -d 1 -p cbr -e 532 -c 2 -a 0 -i 4 -k RTR
h -t 1.066460359 -s 9 -d 1 -p cbr -e 532 -c 2 -a 0 -i 4 -k RTR
+ -t 1.067552738 -s 1 -d 18 -p cbr -e 532 -c 2 -a 0 -i 4 -k RTR 
- -t 1.067552738 -s 1 -d 18 -p cbr -e 532 -c 2 -a 0 -i 4 -k RTR
h -t 1.067552738 -s 1 -d 18 -p cbr -e 532 -c 2 -a 0 -i 4 -k RTR
r -t 1.068904806 -s 18 -d 18 -p cbr -e 532 -c 2 -a 0 -i 4 -k AGT
+ -t 1.081920000 -s 3 -d -1 -p cbr -e 512 -c 2 -a 0 -i 5 -k AGT 
- -t 1.081920000 -s 3 -d -1 -p cbr -e 512 -c 2 -a 0 -i 5 -k AGT
h -t 1.081920000 -s 3 -d -1 -p cbr -e 512 -c 2 -a 0 -i 5 -k AGT
+ -t 1.081920000 -s 3 -d 9 -p cbr -e 532 -c 2 -a 0 -i 5 -k RTR 
- -t 1.081920000 -s 3 -d 9 -p cbr -e 532 -c 2 -a 0 -i 5 -k RTR
h -t 1.081920000 -s 3 -d 9 -p cbr -e 532 -c 2 -a 0 -i 5 -k RTR
+ -t 1.082784359 -s 9 -d 1 -p cbr -e 532 -c 2 -a 0 -i 5 -k RTR 
- -t 1.082784359 -s 9 -d 1 -p cbr -e 532 -c 2 -a 0 -i 5 -k RTR
h -t 1.082784359 -s 9 -d 1 -p cbr -e 532 -c 2 -a 0 -i 5 -k RTR
+ -t 1.083916737 -s 1 -d 18 -p cbr -e 532 -c 2 -a 0 -i 5 -k RTR 
- -t 1.083916737 -s 1 -d 18 -p cbr -e 532 -c 2 -a 0 -i 5 -k RTR
h -t 1.083916737 -s 1 -d 18 -p cbr -e 532 -c 2 -a 0 -i 5 -k RTR
r -t 1.084968806 -s 18 -d 18 -p cbr -e 532 -c 2 -a 0 -i 5 -k AGT
+ -t 1.098304000 -s 3 -d -1 -p cbr -e 512 -c 2 -a 0 -i 6 -k AGT 
- -t 1.098304000 -s 3 -d -1 -p cbr -e 512 -c 2 -a 0 -i 6 -k AGT
h -t 1.098304000 -s 3 -d -1 -p cbr -e 512 -c 2 -a 0 -i 6 -k AGT
+ -t 1.098304000 -s 3 -d 9 -p cbr -e 532 -c 2 -a 0 -i 6 -k RTR 
- -t 1.098304000 -s 3 -d 9 -p cbr -e 532 -c 2 -a 0 -i 6 -k RTR
h -t 1.098304000 -s 3 -d 9 -p cbr -e 532 -c 2 -a 0 -i 6 -k RTR
+ -t 1.099428358 -s 9 -d 1 -p cbr -e 532 -c 2 -a 0 -i 6 -k RTR 
- -t 1.099428358 -s 9 -d 1 -p cbr -e 532 -c 2 -a 0 -i 6 -k RTR
h -t 1.099428358 -s 9 -d 1 -p cbr -e 532 -c 2 -a 0 -i 6 -k RTR
+ -t 1.100840737 -s 1 -d 18 -p cbr -e 532 -c 2 -a 0 -i 6 -k RTR 
- -t 1.100840737 -s 1 -d 18 -p cbr -e 532 -c 2 -a 0 -i 6 -k RTR
h -t 1.100840737 -s 1 -d 18 -p cbr -e 532 -c 2 -a 0 -i 6 -k RTR
r -t 1.101912806 -s 18 -d 18 -p cbr -e 532 -c 2 -a 0 -i 6 -k AGT
+ -t 1.114688000 -s 3 -d -1 -p cbr -e 512 -c 2 -a 0 -i 7 -k AGT 
- -t 1.114688000 -s 3 -d -1 -p cbr -e 512 -c 2 -a 0 -i 7 -k AGT
h -t 1.114688000 -s 3 -d -1 -p cbr -e 512 -c 2 -a 0 -i 7 -k AGT
+ -t 1.114688000 -s 3 -d 9 -p cbr -e 532 -c 2 -a 0 -i 7 -k RTR 
- -t 1.114688000 -s 3 -d 9 -p cbr -e 532 -c 2 -a 0 -i 7 -k RTR
h -t 1.114688000 -s 3 -d 9 -p cbr -e 532 -c 2 -a 0 -i 7 -k RTR
+ -t 1.115492358 -s 9 -d 1 -p cbr -e 532 -c 2 -a 0 -i 7 -k RTR 
- -t 1.115492358 -s 9 -d 1 -p cbr -e 532 -c 2 -a 0 -i 7 -k RTR
h -t 1.115492358 -s 9 -d 1 -p cbr -e 532 -c 2 -a 0 -i 7 -k RTR
+ -t 1.116404736 -s 1 -d 18 -p cbr -e 532 -c 2 -a 0 -i 7 -k RTR 
- -t 1.116404736 -s 1 -d 18 -p cbr -e 532 -c 2 -a 0 -i 7 -k RTR
h -t 1.116404736 -s 1 -d 18 -p cbr -e 532 -c 2 -a 0 -i 7 -k RTR
r -t 1.117836805 -s 18 -d 18 -p cbr -e 532 -c 2 -a 0 -i 7 -k AGT
+ -t 1.131072000 -s 3 -d -1 -p cbr -e 512 -c 2 -a 0 -i 8 -k AGT 
- -t 1.131072000 -s 3 -d -1 -p cbr -e 512 -c 2 -a 0 -i 8 -k AGT
h -t 1.131072000 -s 3 -d -1 -p cbr -e 512 -c 2 -a 0 -i 8 -k AGT
+ -t 1.131072000 -s 3 -d 9 -p cbr -e 532 -c 2 -a 0 -i 8 -k RTR 
- -t 1.131072000 -s 3 -d 9 -p cbr -e 532 -c 2 -a 0 -i 8 -k RTR
h -t 1.131072000 -s 3 -d 9 -p cbr -e 532 -c 2 -a 0 -i 8 -k RTR
+ -t 1.131796357 -s 9 -d 1 -p cbr -e 532 -c 2 -a 0 -i 8 -k RTR 
- -t 1.131796357 -s 9 -d 1 -p cbr -e 532 -c 2 -a 0 -i 8 -k RTR
h -t 1.131796357 -s 9 -d 1 -p cbr -e 532 -c 2 -a 0 -i 8 -k RTR
+ -t 1.132728736 -s 1 -d 18 -p cbr -e 532 -c 2 -a 0 -i 8 -k RTR 
- -t 1.132728736 -s 1 -d 18 -p cbr -e 532 -c 2 -a 0 -i 8 -k RTR
h -t 1.132728736 -s 1 -d 18 -p cbr -e 532 -c 2 -a 0 -i 8 -k RTR
r -t 1.133900805 -s 18 -d 18 -p cbr -e 532 -c 2 -a 0 -i 8 -k AGT
+ -t 1.147456000 -s 3 -d -1 -p cbr -e 512 -c 2 -a 0 -i 9 -k AGT 
- -t 1.147456000 -s 3 -d -1 -p cbr -e 512 -c 2 -a 0 -i 9 -k AGT
h -t 1.147456000 -s 3 -d -1 -p cbr -e 512 -c 2 -a 0 -i 9 -k AGT
+ -t 1.147456000 -s 3 -d 9 -p cbr -e 532 -c 2 -a 0 -i 9 -k RTR 
- -t 1.147456000 -s 3 -d 9 -p cbr -e 532 -c 2 -a 0 -i 9 -k RTR
h -t 1.147456000 -s 3 -d 9 -p cbr -e 532 -c 2 -a 0 -i 9 -k RTR
+ -t 1.148540357 -s 9 -d 1 -p cbr -e 532 -c 2 -a 0 -i 9 -k RTR 
- -t 1.148540357 -s 9 -d 1 -p cbr -e 532 -c 2 -a 0 -i 9 -k RTR
h -t 1.148540357 -s 9 -d 1 -p cbr -e 532 -c 2 -a 0 -i 9 -k RTR
+ -t 1.149892735 -s 1 -d 18 -p cbr -e 532 -c 2 -a 0 -i 9 -k RTR 
- -t 1.149892735 -s 1 -d 18 -p cbr -e 532 -c 2 -a 0 -i 9 -k RTR
h -t 1.149892735 -s 1 -d 18 -p cbr -e 532 -c 2 -a 0 -i 9 -k RTR
r -t 1.151284804 -s 18 -d 18 -p cbr -e 532 -c 2 -a 0 -i 9 -k AGT
+ -t 1.163840000 -s 3 -d -1 -p cbr -e 512 -c 2 -a 0 -i 10 -k AGT 
- -t 1.163840000 -s 3 -d -1 -p cbr -e 512 -c 2 -a 0 -i 10 -k AGT
h -t 1.163840000 -s 3 -d -1 -p cbr -e 512 -c 2 -a 0 -i 10 -k AGT
+ -t 1.163840000 -s 3 -d 9 -p cbr -e 532 -c 2 -a 0 -i 10 -k RTR 
- -t 1.163840000 -s 3 -d 9 -p cbr -e 532 -c 2 -a 0 -i 10 -k RTR
h -t 1.163840000 -s 3 -d 9 -p cbr -e 532 -c 2 -a 0 -i 10 -k RTR
+ -t 1.165084357 -s 9 -d 1 -p cbr -e 532 -c 2 -a 0 -i 10 -k RTR 
- -t 1.165084357 -s 9 -d 1 -p cbr -e 532 -c 2 -a 0 -i 10 -k RTR
h -t 1.165084357 -s 9 -d 1 -p cbr -e 532 -c 2 -a 0 -i 10 -k RTR
+ -t 1.166176735 -s 1 -d 18 -p cbr -e 532 -c 2 -a 0 -i 10 -k RTR 
- -t 1.166176735 -s 1 -d 18 -p cbr -e 532 -c 2 -a 0 -i 10 -k RTR
h -t 1.166176735 -s 1 -d 18 -p cbr -e 532 -c 2 -a 0 -i 10 -k RTR
r -t 1.167328804 -s 18 -d 18 -p cbr -e 532 -c 2 -a 0 -i 10 -k AGT
+ -t 1.180224000 -s 3 -d -1 -p cbr -e 512 -c 2 -a 0 -i 11 -k AGT 
- -t 1.180224000 -s 3 -d -1 -p cbr -e 512 -c 2 -a 0 -i 11 -k AGT
h -t 1.180224000 -s 3 -d -1 -p cbr -e 512 -c 2 -a 0 -i 11 -k AGT
+ -t 1.180224000 -s 3 -d 9 -p cbr -e 532 -c 2 -a 0 -i 11 -k RTR 
- -t 1.180224000 -s 3 -d 9 -p cbr -e 532 -c 2 -a 0 -i 11 -k RTR
h -t 1.180224000 -s 3 -d 9 -p cbr -e 532 -c 2 -a 0 -i 11 -k RTR
+ -t 1.180928356 -s 9 -d 1 -p cbr -e 532 -c 2 -a 0 -i 11 -k RTR 
- -t 1.180928356 -s 9 -d 1 -p cbr -e 532 -c 2 -a 0 -i 11 -k RTR
h -t 1.180928356 -s 9 -d 1 -p cbr -e 532 -c 2 -a 0 -i 11 -k RTR
+ -t 1.182380734 -s 1 -d 18 -p cbr -e 532 -c 2 -a 0 -i 11 -k RTR 
- -t 1.182380734 -s 1 -d 18 -p cbr -e 532 -c 2 -a 0 -i 11 -k RTR
h -t 1.182380734 -s 1 -d 18 -p cbr -e 532 -c 2 -a 0 -i 11 -k RTR
r -t 1.183872804 -s 18 -d 18 -p cbr -e 532 -c 2 -a 0 -i 11 -k AGT
+ -t 1.196608000 -s 3 -d -1 -p cbr -e 512 -c 2 -a 0 -i 12 -k AGT 
- -t 1.196608000 -s 3 -d -1 -p cbr -e 512 -c 2 -a 0 -i 12 -k AGT
h -t 1.196608000 -s 3 -d -1 -p cbr -e 512 -c 2 -a 0 -i 12 -k AGT
+ -t 1.196608000 -s 3 -d 9 -p cbr -e 532 -c 2 -a 0 -i 12 -k RTR 
- -t 1.196608000 -s 3 -d 9 -p cbr -e 532 -c 2 -a 0 -i 12 -k RTR
h -t 1.196608000 -s 3 -d 9 -p cbr -e 532 -c 2 -a 0 -i 12 -k RTR
+ -t 1.197832356 -s 9 -d 1 -p cbr -e 532 -c 2 -a 0 -i 12 -k RTR 
- -t 1.197832356 -s 9 -d 1 -p cbr -e 532 -c 2 -a 0 -i 12 -k RTR
h -t 1.197832356 -s 9 -d 1 -p cbr -e 532 -c 2 -a 0 -i 12 -k RTR
+ -t 1.198884733 -s 1 -d 18 -p cbr -e 532 -c 2 -a 0 -i 12 -k RTR 
- -t 1.198884733 -s 1 -d 18 -p cbr -e 532 -c 2 -a 0 -i 12 -k RTR
h -t 1.198884733 -s 1 -d 18 -p cbr -e 532 -c 2 -a 0 -i 12 -k RTR
r -t 1.200316803 -s 18 -d 18 -p cbr -e 532 -c 2 -a 0 -i 12 -k AGT
+ -t 1.212992000 -s 3 -d -1 -p cbr -e 512 -c 2 -a 0 -i 13 -k AGT 
- -t 1.212992000 -s 3 -d -1 -p cbr -e 512 -c 2 -a 0 -i 13 -k AGT
h -t 1.212992000 -s 3 -d -1 -p cbr -e 512 -c 2 -a 0 -i 13 -k AGT
+ -t 1.212992000 -s 3 -d 9 -p cbr -e 532 -c 2 -a 0 -i 13 -k RTR 
- -t 1.212992000 -s 3 -d 9 -p cbr -e 532 -c 2 -a 0 -i 13 -k RTR
h -t 1.212992000 -s 3 -d 9 -p cbr -e 532 -c 2 -a 0 -i 13 -k RTR
+ -t 1.213696356 -s 9 -d 1 -p cbr -e 532 -c 2 -a 0 -i 13 -k RTR 
- -t 1.213696356 -s 9 -d 1 -p cbr -e 532 -c 2 -a 0 -i 13 -k RTR
h -t 1.213696356 -s 9 -d 1 -p cbr -e 532 -c 2 -a 0 -i 13 -k RTR
+ -t 1.214988733 -s 1 -d 18 -p cbr -e 532 -c 2 -a 0 -i 13 -k RTR 
- -t 1.214988733 -s 1 -d 18 -p cbr -e 532 -c 2 -a 0 -i 13 -k RTR
h -t 1.214988733 -s 1 -d 18 -p cbr -e 532 -c 2 -a 0 -i 13 -k RTR
r -t 1.216140803 -s 18 -d 18 -p cbr -e 532 -c 2 -a 0 -i 13 -k AGT
+ -t 1.229376000 -s 3 -d -1 -p cbr -e 512 -c 2 -a 0 -i 14 -k AGT 
- -t 1.229376000 -s 3 -d -1 -p cbr -e 512 -c 2 -a 0 -i 14 -k AGT
h -t 1.229376000 -s 3 -d -1 -p cbr -e 512 -c 2 -a 0 -i 14 -k AGT
+ -t 1.229376000 -s 3 -d 9 -p cbr -e 532 -c 2 -a 0 -i 14 -k RTR 
- -t 1.229376000 -s 3 -d 9 -p cbr -e 532 -c 2 -a 0 -i 14 -k RTR
h -t 1.229376000 -s 3 -d 9 -p cbr -e 532 -c 2 -a 0 -i 14 -k RTR
+ -t 1.230440355 -s 9 -d 1 -p cbr -e 532 -c 2 -a 0 -i 14 -k RTR 
- -t 1.230440355 -s 9 -d 1 -p cbr -e 532 -c 2 -a 0 -i 14 -k RTR
h -t 1.230440355 -s 9 -d 1 -p cbr -e 532 -c 2 -a 0 -i 14 -k RTR
+ -t 1.231512732 -s 1 -d 18 -p cbr -e 532 -c 2 -a 0 -i 14 -k RTR 
- -t 1.231512732 -s 1 -d 18 -p cbr -e 532 -c 2 -a 0 -i 14 -k RTR
h -t 1.231512732 -s 1 -d 18 -p cbr -e 532 -c 2 -a 0 -i 14 -k RTR
r -t 1.233024803 -s 18 -d 18 -p cbr -e 532 -c 2 -a 0 -i 14 -k AGT
+ -t 1.245760000 -s 3 -d -1 -p cbr -e 512 -c 2 -a 0 -i 15 -k AGT 
- -t 1.245760000 -s 3 -d -1 -p cbr -e 512 -c 2 -a 0 -i 15 -k AGT
h -t 1.245760000 -s 3 -d -1 -p cbr -e 512 -c 2 -a 0 -i 15 -k AGT
+ -t 1.245760000 -s 3 -d 9 -p cbr -e 532 -c 2 -a 0 -i 15 -k RTR 
- -t 1.245760000 -s 3 -d 9 -p cbr -e 532 -c 2 -a 0 -i 15 -k RTR
h -t 1.245760000 -s 3 -d 9 -p cbr -e 532 -c 2 -a 0 -i 15 -k RTR
+ -t 1.247004355 -s 9 -d 1 -p cbr -e 532 -c 2 -a 0 -i 15 -k RTR 
- -t 1.247004355 -s 9 -d 1 -p cbr -e 532 -c 2 -a 0 -i 15 -k RTR
h -t 1.247004355 -s 9 -d 1 -p cbr -e 532 -c 2 -a 0 -i 15 -k RTR
+ -t 1.247956732 -s 1 -d 18 -p cbr -e 532 -c 2 -a 0 -i 15 -k RTR 
- -t 1.247956732 -s 1 -d 18 -p cbr -e 532 -c 2 -a 0 -i 15 -k RTR
h -t 1.247956732 -s 1 -d 18 -p cbr -e 532 -c 2 -a 0 -i 15 -k RTR
r -t 1.249228802 -s 18 -d 18 -p cbr -e 532 -c 2 -a 0 -i 15 -k AGT
+ -t 1.262144000 -s 3 -d -1 -p cbr -e 512 -c 2 -a 0 -i 16 -k AGT 
- -t 1.262144000 -s 3 -d -1 -p cbr -e 512 -c 2 -a 0 -i 16 -k AGT
h -t 1.262144000 -s 3 -d -1 -p cbr -e 512 -c 2 -a 0 -i 16 -k AGT
+ -t 1.262144000 -s 3 -d 9 -p cbr -e 532 -c 2 -a 0 -i 16 -k RTR 
- -t 1.262144000 -s 3 -d 9 -p cbr -e 532 -c 2 -a 0 -i 16 -k RTR
h -t 1.262144000 -s 3 -d 9 -p cbr -e 532 -c 2 -a 0 -i 16 -k RTR
+ -t 1.263408354 -s 9 -d 1 -p cbr -e 532 -c 2 -a 0 -i 16 -k RTR 
- -t 1.263408354 -s 9 -d 1 -p cbr -e 532 -c 2 -a 0 -i 16 -k RTR
h -t 1.263408354 -s 9 -d 1 -p cbr -e 532 -c 2 -a 0 -i 16 -k RTR
+ -t 1.264620731 -s 1 -d 18 -p cbr -e 532 -c 2 -a 0 -i 16 -k RTR 
- -t 1.264620731 -s 1 -d 18 -p cbr -e 532 -c 2 -a 0 -i 16 -k RTR
h -t 1.264620731 -s 1 -d 18 -p cbr -e 532 -c 2 -a 0 -i 16 -k RTR
r -t 1.265852802 -s 18 -d 18 -p cbr -e 532 -c 2 -a 0 -i 16 -k AGT
+ -t 1.278528000 -s 3 -d -1 -p cbr -e 512 -c 2 -a 0 -i 17 -k AGT 
- -t 1.278528000 -s 3 -d -1 -p cbr -e 512 -c 2 -a 0 -i 17 -k AGT
h -t 1.278528000 -s 3 -d -1 -p cbr -e 512 -c 2 -a 0 -i 17 -k AGT
+ -t 1.278528000 -s 3 -d 9 -p cbr -e 532 -c 2 -a 0 -i 17 -k RTR 
- -t 1.278528000 -s 3 -d 9 -p cbr -e 532 -c 2 -a 0 -i 17 -k RTR
h -t 1.278528000 -s 3 -d 9 -p cbr -e 532 -c 2 -a 0 -i 17 -k RTR
+ -t 1.279752354 -s 9 -d 1 -p cbr -e 532 -c 2 -a 0 -i 17 -k RTR 
- -t 1.279752354 -s 9 -d 1 -p cbr -e 532 -c 2 -a 0 -i 17 -k RTR
h -t 1.279752354 -s 9 -d 1 -p cbr -e 532 -c 2 -a 0 -i 17 -k RTR